V -t * -v 1.0a5 -a 0
A -t * -n 1 -p 0 -o 0x7fffffff -c 30 -a 1
A -t * -h 1 -m 1073741823 -s 0
c -t * -i 1 -n Red
c -t * -i 2 -n Green
n -t * -a 0 -s 0 -S UP -v circle -c black -i black
n -t * -a 1 -s 1 -S UP -v circle -c black -i black
n -t * -a 2 -s 2 -S UP -v circle -c black -i black
n -t * -a 3 -s 3 -S UP -v circle -c black -i black
l -t * -s 0 -d 2 -S UP -r 2000000 -D 0.01 -c black -o right
l -t * -s 0 -d 1 -S UP -r 1700000 -D 0.01 -c black -o right-down
l -t * -s 2 -d 3 -S UP -r 2000000 -D 0.01 -c black -o right-down
l -t * -s 1 -d 3 -S UP -r 2000000 -D 0.01 -c black -o right
+ -t 0.000169788487334637 -s 0 -d 1 -p rtProtoDV -e 4 -c 0 -i 0 -a 0 -x {0.2 1.1 -1 ------- null}
- -t 0.000169788487334637 -s 0 -d 1 -p rtProtoDV -e 4 -c 0 -i 0 -a 0 -x {0.2 1.1 -1 ------- null}
h -t 0.000169788487334637 -s 0 -d 1 -p rtProtoDV -e 4 -c 0 -i 0 -a 0 -x {0.2 1.1 -1 ------- null}
+ -t 0.000169788487334637 -s 0 -d 2 -p rtProtoDV -e 4 -c 0 -i 1 -a 0 -x {0.2 2.2 -1 ------- null}
- -t 0.000169788487334637 -s 0 -d 2 -p rtProtoDV -e 4 -c 0 -i 1 -a 0 -x {0.2 2.2 -1 ------- null}
h -t 0.000169788487334637 -s 0 -d 2 -p rtProtoDV -e 4 -c 0 -i 1 -a 0 -x {0.2 2.2 -1 ------- null}
+ -t 0.00710233021858257 -s 2 -d 0 -p rtProtoDV -e 4 -c 0 -i 2 -a 0 -x {2.2 0.2 -1 ------- null}
- -t 0.00710233021858257 -s 2 -d 0 -p rtProtoDV -e 4 -c 0 -i 2 -a 0 -x {2.2 0.2 -1 ------- null}
h -t 0.00710233021858257 -s 2 -d 0 -p rtProtoDV -e 4 -c 0 -i 2 -a 0 -x {2.2 0.2 -1 ------- null}
+ -t 0.00710233021858257 -s 2 -d 3 -p rtProtoDV -e 4 -c 0 -i 3 -a 0 -x {2.2 3.3 -1 ------- null}
- -t 0.00710233021858257 -s 2 -d 3 -p rtProtoDV -e 4 -c 0 -i 3 -a 0 -x {2.2 3.3 -1 ------- null}
h -t 0.00710233021858257 -s 2 -d 3 -p rtProtoDV -e 4 -c 0 -i 3 -a 0 -x {2.2 3.3 -1 ------- null}
r -t 0.0101857884873346 -s 0 -d 2 -p rtProtoDV -e 4 -c 0 -i 1 -a 0 -x {0.2 2.2 -1 ------- null}
+ -t 0.0101857884873346 -s 2 -d 0 -p rtProtoDV -e 4 -c 0 -i 4 -a 0 -x {2.2 0.2 -1 ------- null}
- -t 0.0101857884873346 -s 2 -d 0 -p rtProtoDV -e 4 -c 0 -i 4 -a 0 -x {2.2 0.2 -1 ------- null}
h -t 0.0101857884873346 -s 2 -d 0 -p rtProtoDV -e 4 -c 0 -i 4 -a 0 -x {2.2 0.2 -1 ------- null}
+ -t 0.0101857884873346 -s 2 -d 3 -p rtProtoDV -e 4 -c 0 -i 5 -a 0 -x {2.2 3.3 -1 ------- null}
- -t 0.0101857884873346 -s 2 -d 3 -p rtProtoDV -e 4 -c 0 -i 5 -a 0 -x {2.2 3.3 -1 ------- null}
h -t 0.0101857884873346 -s 2 -d 3 -p rtProtoDV -e 4 -c 0 -i 5 -a 0 -x {2.2 3.3 -1 ------- null}
r -t 0.0101886120167464 -s 0 -d 1 -p rtProtoDV -e 4 -c 0 -i 0 -a 0 -x {0.2 1.1 -1 ------- null}
+ -t 0.0101886120167464 -s 1 -d 0 -p rtProtoDV -e 4 -c 0 -i 6 -a 0 -x {1.1 0.2 -1 ------- null}
- -t 0.0101886120167464 -s 1 -d 0 -p rtProtoDV -e 4 -c 0 -i 6 -a 0 -x {1.1 0.2 -1 ------- null}
h -t 0.0101886120167464 -s 1 -d 0 -p rtProtoDV -e 4 -c 0 -i 6 -a 0 -x {1.1 0.2 -1 ------- null}
+ -t 0.0101886120167464 -s 1 -d 3 -p rtProtoDV -e 4 -c 0 -i 7 -a 0 -x {1.1 3.3 -1 ------- null}
- -t 0.0101886120167464 -s 1 -d 3 -p rtProtoDV -e 4 -c 0 -i 7 -a 0 -x {1.1 3.3 -1 ------- null}
h -t 0.0101886120167464 -s 1 -d 3 -p rtProtoDV -e 4 -c 0 -i 7 -a 0 -x {1.1 3.3 -1 ------- null}
r -t 0.0171183302185826 -s 2 -d 0 -p rtProtoDV -e 4 -c 0 -i 2 -a 0 -x {2.2 0.2 -1 ------- null}
+ -t 0.0171183302185826 -s 0 -d 1 -p rtProtoDV -e 4 -c 0 -i 8 -a 0 -x {0.2 1.1 -1 ------- null}
- -t 0.0171183302185826 -s 0 -d 1 -p rtProtoDV -e 4 -c 0 -i 8 -a 0 -x {0.2 1.1 -1 ------- null}
h -t 0.0171183302185826 -s 0 -d 1 -p rtProtoDV -e 4 -c 0 -i 8 -a 0 -x {0.2 1.1 -1 ------- null}
+ -t 0.0171183302185826 -s 0 -d 2 -p rtProtoDV -e 4 -c 0 -i 9 -a 0 -x {0.2 2.2 -1 ------- null}
- -t 0.0171183302185826 -s 0 -d 2 -p rtProtoDV -e 4 -c 0 -i 9 -a 0 -x {0.2 2.2 -1 ------- null}
h -t 0.0171183302185826 -s 0 -d 2 -p rtProtoDV -e 4 -c 0 -i 9 -a 0 -x {0.2 2.2 -1 ------- null}
r -t 0.0171183302185826 -s 2 -d 3 -p rtProtoDV -e 4 -c 0 -i 3 -a 0 -x {2.2 3.3 -1 ------- null}
+ -t 0.0171183302185826 -s 3 -d 1 -p rtProtoDV -e 4 -c 0 -i 10 -a 0 -x {3.3 1.1 -1 ------- null}
- -t 0.0171183302185826 -s 3 -d 1 -p rtProtoDV -e 4 -c 0 -i 10 -a 0 -x {3.3 1.1 -1 ------- null}
h -t 0.0171183302185826 -s 3 -d 1 -p rtProtoDV -e 4 -c 0 -i 10 -a 0 -x {3.3 1.1 -1 ------- null}
+ -t 0.0171183302185826 -s 3 -d 2 -p rtProtoDV -e 4 -c 0 -i 11 -a 0 -x {3.3 2.2 -1 ------- null}
- -t 0.0171183302185826 -s 3 -d 2 -p rtProtoDV -e 4 -c 0 -i 11 -a 0 -x {3.3 2.2 -1 ------- null}
h -t 0.0171183302185826 -s 3 -d 2 -p rtProtoDV -e 4 -c 0 -i 11 -a 0 -x {3.3 2.2 -1 ------- null}
r -t 0.0202017884873346 -s 2 -d 0 -p rtProtoDV -e 4 -c 0 -i 4 -a 0 -x {2.2 0.2 -1 ------- null}
r -t 0.0202017884873346 -s 2 -d 3 -p rtProtoDV -e 4 -c 0 -i 5 -a 0 -x {2.2 3.3 -1 ------- null}
r -t 0.0202046120167464 -s 1 -d 3 -p rtProtoDV -e 4 -c 0 -i 7 -a 0 -x {1.1 3.3 -1 ------- null}
r -t 0.0202074355461582 -s 1 -d 0 -p rtProtoDV -e 4 -c 0 -i 6 -a 0 -x {1.1 0.2 -1 ------- null}
r -t 0.0271343302185826 -s 0 -d 2 -p rtProtoDV -e 4 -c 0 -i 9 -a 0 -x {0.2 2.2 -1 ------- null}
r -t 0.0271343302185826 -s 3 -d 1 -p rtProtoDV -e 4 -c 0 -i 10 -a 0 -x {3.3 1.1 -1 ------- null}
r -t 0.0271343302185826 -s 3 -d 2 -p rtProtoDV -e 4 -c 0 -i 11 -a 0 -x {3.3 2.2 -1 ------- null}
r -t 0.0271371537479943 -s 0 -d 1 -p rtProtoDV -e 4 -c 0 -i 8 -a 0 -x {0.2 1.1 -1 ------- null}
+ -t 0.04406133552271 -s 3 -d 1 -p rtProtoDV -e 4 -c 0 -i 12 -a 0 -x {3.3 1.1 -1 ------- null}
- -t 0.04406133552271 -s 3 -d 1 -p rtProtoDV -e 4 -c 0 -i 12 -a 0 -x {3.3 1.1 -1 ------- null}
h -t 0.04406133552271 -s 3 -d 1 -p rtProtoDV -e 4 -c 0 -i 12 -a 0 -x {3.3 1.1 -1 ------- null}
+ -t 0.04406133552271 -s 3 -d 2 -p rtProtoDV -e 4 -c 0 -i 13 -a 0 -x {3.3 2.2 -1 ------- null}
- -t 0.04406133552271 -s 3 -d 2 -p rtProtoDV -e 4 -c 0 -i 13 -a 0 -x {3.3 2.2 -1 ------- null}
h -t 0.04406133552271 -s 3 -d 2 -p rtProtoDV -e 4 -c 0 -i 13 -a 0 -x {3.3 2.2 -1 ------- null}
r -t 0.05407733552271 -s 3 -d 1 -p rtProtoDV -e 4 -c 0 -i 12 -a 0 -x {3.3 1.1 -1 ------- null}
r -t 0.05407733552271 -s 3 -d 2 -p rtProtoDV -e 4 -c 0 -i 13 -a 0 -x {3.3 2.2 -1 ------- null}
+ -t 0.1 -s 2 -d 3 -p cbr -e 210 -c 0 -i 14 -a 0 -x {2.0 3.1 0 ------- null}
- -t 0.1 -s 2 -d 3 -p cbr -e 210 -c 0 -i 14 -a 0 -x {2.0 3.1 0 ------- null}
h -t 0.1 -s 2 -d 3 -p cbr -e 210 -c 0 -i 14 -a 0 -x {2.0 3.1 -1 ------- null}
+ -t 0.10168 -s 2 -d 3 -p cbr -e 210 -c 0 -i 15 -a 0 -x {2.0 3.1 1 ------- null}
- -t 0.10168 -s 2 -d 3 -p cbr -e 210 -c 0 -i 15 -a 0 -x {2.0 3.1 1 ------- null}
h -t 0.10168 -s 2 -d 3 -p cbr -e 210 -c 0 -i 15 -a 0 -x {2.0 3.1 -1 ------- null}
+ -t 0.10336 -s 2 -d 3 -p cbr -e 210 -c 0 -i 16 -a 0 -x {2.0 3.1 2 ------- null}
- -t 0.10336 -s 2 -d 3 -p cbr -e 210 -c 0 -i 16 -a 0 -x {2.0 3.1 2 ------- null}
h -t 0.10336 -s 2 -d 3 -p cbr -e 210 -c 0 -i 16 -a 0 -x {2.0 3.1 -1 ------- null}
+ -t 0.10504 -s 2 -d 3 -p cbr -e 210 -c 0 -i 17 -a 0 -x {2.0 3.1 3 ------- null}
- -t 0.10504 -s 2 -d 3 -p cbr -e 210 -c 0 -i 17 -a 0 -x {2.0 3.1 3 ------- null}
h -t 0.10504 -s 2 -d 3 -p cbr -e 210 -c 0 -i 17 -a 0 -x {2.0 3.1 -1 ------- null}
+ -t 0.10672 -s 2 -d 3 -p cbr -e 210 -c 0 -i 18 -a 0 -x {2.0 3.1 4 ------- null}
- -t 0.10672 -s 2 -d 3 -p cbr -e 210 -c 0 -i 18 -a 0 -x {2.0 3.1 4 ------- null}
h -t 0.10672 -s 2 -d 3 -p cbr -e 210 -c 0 -i 18 -a 0 -x {2.0 3.1 -1 ------- null}
+ -t 0.1084 -s 2 -d 3 -p cbr -e 210 -c 0 -i 19 -a 0 -x {2.0 3.1 5 ------- null}
- -t 0.1084 -s 2 -d 3 -p cbr -e 210 -c 0 -i 19 -a 0 -x {2.0 3.1 5 ------- null}
h -t 0.1084 -s 2 -d 3 -p cbr -e 210 -c 0 -i 19 -a 0 -x {2.0 3.1 -1 ------- null}
+ -t 0.11008 -s 2 -d 3 -p cbr -e 210 -c 0 -i 20 -a 0 -x {2.0 3.1 6 ------- null}
- -t 0.11008 -s 2 -d 3 -p cbr -e 210 -c 0 -i 20 -a 0 -x {2.0 3.1 6 ------- null}
h -t 0.11008 -s 2 -d 3 -p cbr -e 210 -c 0 -i 20 -a 0 -x {2.0 3.1 -1 ------- null}
r -t 0.11084 -s 2 -d 3 -p cbr -e 210 -c 0 -i 14 -a 0 -x {2.0 3.1 0 ------- null}
+ -t 0.11176 -s 2 -d 3 -p cbr -e 210 -c 0 -i 21 -a 0 -x {2.0 3.1 7 ------- null}
- -t 0.11176 -s 2 -d 3 -p cbr -e 210 -c 0 -i 21 -a 0 -x {2.0 3.1 7 ------- null}
h -t 0.11176 -s 2 -d 3 -p cbr -e 210 -c 0 -i 21 -a 0 -x {2.0 3.1 -1 ------- null}
r -t 0.11252 -s 2 -d 3 -p cbr -e 210 -c 0 -i 15 -a 0 -x {2.0 3.1 1 ------- null}
+ -t 0.11344 -s 2 -d 3 -p cbr -e 210 -c 0 -i 22 -a 0 -x {2.0 3.1 8 ------- null}
- -t 0.11344 -s 2 -d 3 -p cbr -e 210 -c 0 -i 22 -a 0 -x {2.0 3.1 8 ------- null}
h -t 0.11344 -s 2 -d 3 -p cbr -e 210 -c 0 -i 22 -a 0 -x {2.0 3.1 -1 ------- null}
r -t 0.1142 -s 2 -d 3 -p cbr -e 210 -c 0 -i 16 -a 0 -x {2.0 3.1 2 ------- null}
+ -t 0.11512 -s 2 -d 3 -p cbr -e 210 -c 0 -i 23 -a 0 -x {2.0 3.1 9 ------- null}
- -t 0.11512 -s 2 -d 3 -p cbr -e 210 -c 0 -i 23 -a 0 -x {2.0 3.1 9 ------- null}
h -t 0.11512 -s 2 -d 3 -p cbr -e 210 -c 0 -i 23 -a 0 -x {2.0 3.1 -1 ------- null}
r -t 0.11588 -s 2 -d 3 -p cbr -e 210 -c 0 -i 17 -a 0 -x {2.0 3.1 3 ------- null}
+ -t 0.1168 -s 2 -d 3 -p cbr -e 210 -c 0 -i 24 -a 0 -x {2.0 3.1 10 ------- null}
- -t 0.1168 -s 2 -d 3 -p cbr -e 210 -c 0 -i 24 -a 0 -x {2.0 3.1 10 ------- null}
h -t 0.1168 -s 2 -d 3 -p cbr -e 210 -c 0 -i 24 -a 0 -x {2.0 3.1 -1 ------- null}
r -t 0.11756 -s 2 -d 3 -p cbr -e 210 -c 0 -i 18 -a 0 -x {2.0 3.1 4 ------- null}
+ -t 0.11848 -s 2 -d 3 -p cbr -e 210 -c 0 -i 25 -a 0 -x {2.0 3.1 11 ------- null}
- -t 0.11848 -s 2 -d 3 -p cbr -e 210 -c 0 -i 25 -a 0 -x {2.0 3.1 11 ------- null}
h -t 0.11848 -s 2 -d 3 -p cbr -e 210 -c 0 -i 25 -a 0 -x {2.0 3.1 -1 ------- null}
r -t 0.11924 -s 2 -d 3 -p cbr -e 210 -c 0 -i 19 -a 0 -x {2.0 3.1 5 ------- null}
+ -t 0.12016 -s 2 -d 3 -p cbr -e 210 -c 0 -i 26 -a 0 -x {2.0 3.1 12 ------- null}
- -t 0.12016 -s 2 -d 3 -p cbr -e 210 -c 0 -i 26 -a 0 -x {2.0 3.1 12 ------- null}
h -t 0.12016 -s 2 -d 3 -p cbr -e 210 -c 0 -i 26 -a 0 -x {2.0 3.1 -1 ------- null}
r -t 0.12092 -s 2 -d 3 -p cbr -e 210 -c 0 -i 20 -a 0 -x {2.0 3.1 6 ------- null}
+ -t 0.12184 -s 2 -d 3 -p cbr -e 210 -c 0 -i 27 -a 0 -x {2.0 3.1 13 ------- null}
- -t 0.12184 -s 2 -d 3 -p cbr -e 210 -c 0 -i 27 -a 0 -x {2.0 3.1 13 ------- null}
h -t 0.12184 -s 2 -d 3 -p cbr -e 210 -c 0 -i 27 -a 0 -x {2.0 3.1 -1 ------- null}
r -t 0.1226 -s 2 -d 3 -p cbr -e 210 -c 0 -i 21 -a 0 -x {2.0 3.1 7 ------- null}
+ -t 0.12352 -s 2 -d 3 -p cbr -e 210 -c 0 -i 28 -a 0 -x {2.0 3.1 14 ------- null}
- -t 0.12352 -s 2 -d 3 -p cbr -e 210 -c 0 -i 28 -a 0 -x {2.0 3.1 14 ------- null}
h -t 0.12352 -s 2 -d 3 -p cbr -e 210 -c 0 -i 28 -a 0 -x {2.0 3.1 -1 ------- null}
r -t 0.12428 -s 2 -d 3 -p cbr -e 210 -c 0 -i 22 -a 0 -x {2.0 3.1 8 ------- null}
+ -t 0.1252 -s 2 -d 3 -p cbr -e 210 -c 0 -i 29 -a 0 -x {2.0 3.1 15 ------- null}
- -t 0.1252 -s 2 -d 3 -p cbr -e 210 -c 0 -i 29 -a 0 -x {2.0 3.1 15 ------- null}
h -t 0.1252 -s 2 -d 3 -p cbr -e 210 -c 0 -i 29 -a 0 -x {2.0 3.1 -1 ------- null}
r -t 0.12596 -s 2 -d 3 -p cbr -e 210 -c 0 -i 23 -a 0 -x {2.0 3.1 9 ------- null}
+ -t 0.12688 -s 2 -d 3 -p cbr -e 210 -c 0 -i 30 -a 0 -x {2.0 3.1 16 ------- null}
- -t 0.12688 -s 2 -d 3 -p cbr -e 210 -c 0 -i 30 -a 0 -x {2.0 3.1 16 ------- null}
h -t 0.12688 -s 2 -d 3 -p cbr -e 210 -c 0 -i 30 -a 0 -x {2.0 3.1 -1 ------- null}
r -t 0.12764 -s 2 -d 3 -p cbr -e 210 -c 0 -i 24 -a 0 -x {2.0 3.1 10 ------- null}
+ -t 0.12856 -s 2 -d 3 -p cbr -e 210 -c 0 -i 31 -a 0 -x {2.0 3.1 17 ------- null}
- -t 0.12856 -s 2 -d 3 -p cbr -e 210 -c 0 -i 31 -a 0 -x {2.0 3.1 17 ------- null}
h -t 0.12856 -s 2 -d 3 -p cbr -e 210 -c 0 -i 31 -a 0 -x {2.0 3.1 -1 ------- null}
r -t 0.12932 -s 2 -d 3 -p cbr -e 210 -c 0 -i 25 -a 0 -x {2.0 3.1 11 ------- null}
+ -t 0.13024 -s 2 -d 3 -p cbr -e 210 -c 0 -i 32 -a 0 -x {2.0 3.1 18 ------- null}
- -t 0.13024 -s 2 -d 3 -p cbr -e 210 -c 0 -i 32 -a 0 -x {2.0 3.1 18 ------- null}
h -t 0.13024 -s 2 -d 3 -p cbr -e 210 -c 0 -i 32 -a 0 -x {2.0 3.1 -1 ------- null}
r -t 0.131 -s 2 -d 3 -p cbr -e 210 -c 0 -i 26 -a 0 -x {2.0 3.1 12 ------- null}
+ -t 0.13192 -s 2 -d 3 -p cbr -e 210 -c 0 -i 33 -a 0 -x {2.0 3.1 19 ------- null}
- -t 0.13192 -s 2 -d 3 -p cbr -e 210 -c 0 -i 33 -a 0 -x {2.0 3.1 19 ------- null}
h -t 0.13192 -s 2 -d 3 -p cbr -e 210 -c 0 -i 33 -a 0 -x {2.0 3.1 -1 ------- null}
r -t 0.13268 -s 2 -d 3 -p cbr -e 210 -c 0 -i 27 -a 0 -x {2.0 3.1 13 ------- null}
+ -t 0.1336 -s 2 -d 3 -p cbr -e 210 -c 0 -i 34 -a 0 -x {2.0 3.1 20 ------- null}
- -t 0.1336 -s 2 -d 3 -p cbr -e 210 -c 0 -i 34 -a 0 -x {2.0 3.1 20 ------- null}
h -t 0.1336 -s 2 -d 3 -p cbr -e 210 -c 0 -i 34 -a 0 -x {2.0 3.1 -1 ------- null}
r -t 0.13436 -s 2 -d 3 -p cbr -e 210 -c 0 -i 28 -a 0 -x {2.0 3.1 14 ------- null}
+ -t 0.13528 -s 2 -d 3 -p cbr -e 210 -c 0 -i 35 -a 0 -x {2.0 3.1 21 ------- null}
- -t 0.13528 -s 2 -d 3 -p cbr -e 210 -c 0 -i 35 -a 0 -x {2.0 3.1 21 ------- null}
h -t 0.13528 -s 2 -d 3 -p cbr -e 210 -c 0 -i 35 -a 0 -x {2.0 3.1 -1 ------- null}
r -t 0.13604 -s 2 -d 3 -p cbr -e 210 -c 0 -i 29 -a 0 -x {2.0 3.1 15 ------- null}
+ -t 0.13696 -s 2 -d 3 -p cbr -e 210 -c 0 -i 36 -a 0 -x {2.0 3.1 22 ------- null}
- -t 0.13696 -s 2 -d 3 -p cbr -e 210 -c 0 -i 36 -a 0 -x {2.0 3.1 22 ------- null}
h -t 0.13696 -s 2 -d 3 -p cbr -e 210 -c 0 -i 36 -a 0 -x {2.0 3.1 -1 ------- null}
r -t 0.13772 -s 2 -d 3 -p cbr -e 210 -c 0 -i 30 -a 0 -x {2.0 3.1 16 ------- null}
+ -t 0.13864 -s 2 -d 3 -p cbr -e 210 -c 0 -i 37 -a 0 -x {2.0 3.1 23 ------- null}
- -t 0.13864 -s 2 -d 3 -p cbr -e 210 -c 0 -i 37 -a 0 -x {2.0 3.1 23 ------- null}
h -t 0.13864 -s 2 -d 3 -p cbr -e 210 -c 0 -i 37 -a 0 -x {2.0 3.1 -1 ------- null}
r -t 0.1394 -s 2 -d 3 -p cbr -e 210 -c 0 -i 31 -a 0 -x {2.0 3.1 17 ------- null}
+ -t 0.14032 -s 2 -d 3 -p cbr -e 210 -c 0 -i 38 -a 0 -x {2.0 3.1 24 ------- null}
- -t 0.14032 -s 2 -d 3 -p cbr -e 210 -c 0 -i 38 -a 0 -x {2.0 3.1 24 ------- null}
h -t 0.14032 -s 2 -d 3 -p cbr -e 210 -c 0 -i 38 -a 0 -x {2.0 3.1 -1 ------- null}
r -t 0.14108 -s 2 -d 3 -p cbr -e 210 -c 0 -i 32 -a 0 -x {2.0 3.1 18 ------- null}
+ -t 0.142 -s 2 -d 3 -p cbr -e 210 -c 0 -i 39 -a 0 -x {2.0 3.1 25 ------- null}
- -t 0.142 -s 2 -d 3 -p cbr -e 210 -c 0 -i 39 -a 0 -x {2.0 3.1 25 ------- null}
h -t 0.142 -s 2 -d 3 -p cbr -e 210 -c 0 -i 39 -a 0 -x {2.0 3.1 -1 ------- null}
r -t 0.14276 -s 2 -d 3 -p cbr -e 210 -c 0 -i 33 -a 0 -x {2.0 3.1 19 ------- null}
+ -t 0.14368 -s 2 -d 3 -p cbr -e 210 -c 0 -i 40 -a 0 -x {2.0 3.1 26 ------- null}
- -t 0.14368 -s 2 -d 3 -p cbr -e 210 -c 0 -i 40 -a 0 -x {2.0 3.1 26 ------- null}
h -t 0.14368 -s 2 -d 3 -p cbr -e 210 -c 0 -i 40 -a 0 -x {2.0 3.1 -1 ------- null}
r -t 0.14444 -s 2 -d 3 -p cbr -e 210 -c 0 -i 34 -a 0 -x {2.0 3.1 20 ------- null}
+ -t 0.14536 -s 2 -d 3 -p cbr -e 210 -c 0 -i 41 -a 0 -x {2.0 3.1 27 ------- null}
- -t 0.14536 -s 2 -d 3 -p cbr -e 210 -c 0 -i 41 -a 0 -x {2.0 3.1 27 ------- null}
h -t 0.14536 -s 2 -d 3 -p cbr -e 210 -c 0 -i 41 -a 0 -x {2.0 3.1 -1 ------- null}
r -t 0.14612 -s 2 -d 3 -p cbr -e 210 -c 0 -i 35 -a 0 -x {2.0 3.1 21 ------- null}
+ -t 0.14704 -s 2 -d 3 -p cbr -e 210 -c 0 -i 42 -a 0 -x {2.0 3.1 28 ------- null}
- -t 0.14704 -s 2 -d 3 -p cbr -e 210 -c 0 -i 42 -a 0 -x {2.0 3.1 28 ------- null}
h -t 0.14704 -s 2 -d 3 -p cbr -e 210 -c 0 -i 42 -a 0 -x {2.0 3.1 -1 ------- null}
r -t 0.1478 -s 2 -d 3 -p cbr -e 210 -c 0 -i 36 -a 0 -x {2.0 3.1 22 ------- null}
+ -t 0.14872 -s 2 -d 3 -p cbr -e 210 -c 0 -i 43 -a 0 -x {2.0 3.1 29 ------- null}
- -t 0.14872 -s 2 -d 3 -p cbr -e 210 -c 0 -i 43 -a 0 -x {2.0 3.1 29 ------- null}
h -t 0.14872 -s 2 -d 3 -p cbr -e 210 -c 0 -i 43 -a 0 -x {2.0 3.1 -1 ------- null}
r -t 0.14948 -s 2 -d 3 -p cbr -e 210 -c 0 -i 37 -a 0 -x {2.0 3.1 23 ------- null}
+ -t 0.1504 -s 2 -d 3 -p cbr -e 210 -c 0 -i 44 -a 0 -x {2.0 3.1 30 ------- null}
- -t 0.1504 -s 2 -d 3 -p cbr -e 210 -c 0 -i 44 -a 0 -x {2.0 3.1 30 ------- null}
h -t 0.1504 -s 2 -d 3 -p cbr -e 210 -c 0 -i 44 -a 0 -x {2.0 3.1 -1 ------- null}
r -t 0.15116 -s 2 -d 3 -p cbr -e 210 -c 0 -i 38 -a 0 -x {2.0 3.1 24 ------- null}
+ -t 0.15208 -s 2 -d 3 -p cbr -e 210 -c 0 -i 45 -a 0 -x {2.0 3.1 31 ------- null}
- -t 0.15208 -s 2 -d 3 -p cbr -e 210 -c 0 -i 45 -a 0 -x {2.0 3.1 31 ------- null}
h -t 0.15208 -s 2 -d 3 -p cbr -e 210 -c 0 -i 45 -a 0 -x {2.0 3.1 -1 ------- null}
r -t 0.15284 -s 2 -d 3 -p cbr -e 210 -c 0 -i 39 -a 0 -x {2.0 3.1 25 ------- null}
+ -t 0.15376 -s 2 -d 3 -p cbr -e 210 -c 0 -i 46 -a 0 -x {2.0 3.1 32 ------- null}
- -t 0.15376 -s 2 -d 3 -p cbr -e 210 -c 0 -i 46 -a 0 -x {2.0 3.1 32 ------- null}
h -t 0.15376 -s 2 -d 3 -p cbr -e 210 -c 0 -i 46 -a 0 -x {2.0 3.1 -1 ------- null}
r -t 0.15452 -s 2 -d 3 -p cbr -e 210 -c 0 -i 40 -a 0 -x {2.0 3.1 26 ------- null}
+ -t 0.15544 -s 2 -d 3 -p cbr -e 210 -c 0 -i 47 -a 0 -x {2.0 3.1 33 ------- null}
- -t 0.15544 -s 2 -d 3 -p cbr -e 210 -c 0 -i 47 -a 0 -x {2.0 3.1 33 ------- null}
h -t 0.15544 -s 2 -d 3 -p cbr -e 210 -c 0 -i 47 -a 0 -x {2.0 3.1 -1 ------- null}
r -t 0.1562 -s 2 -d 3 -p cbr -e 210 -c 0 -i 41 -a 0 -x {2.0 3.1 27 ------- null}
+ -t 0.15712 -s 2 -d 3 -p cbr -e 210 -c 0 -i 48 -a 0 -x {2.0 3.1 34 ------- null}
- -t 0.15712 -s 2 -d 3 -p cbr -e 210 -c 0 -i 48 -a 0 -x {2.0 3.1 34 ------- null}
h -t 0.15712 -s 2 -d 3 -p cbr -e 210 -c 0 -i 48 -a 0 -x {2.0 3.1 -1 ------- null}
r -t 0.15788 -s 2 -d 3 -p cbr -e 210 -c 0 -i 42 -a 0 -x {2.0 3.1 28 ------- null}
+ -t 0.1588 -s 2 -d 3 -p cbr -e 210 -c 0 -i 49 -a 0 -x {2.0 3.1 35 ------- null}
- -t 0.1588 -s 2 -d 3 -p cbr -e 210 -c 0 -i 49 -a 0 -x {2.0 3.1 35 ------- null}
h -t 0.1588 -s 2 -d 3 -p cbr -e 210 -c 0 -i 49 -a 0 -x {2.0 3.1 -1 ------- null}
r -t 0.15956 -s 2 -d 3 -p cbr -e 210 -c 0 -i 43 -a 0 -x {2.0 3.1 29 ------- null}
+ -t 0.16048 -s 2 -d 3 -p cbr -e 210 -c 0 -i 50 -a 0 -x {2.0 3.1 36 ------- null}
- -t 0.16048 -s 2 -d 3 -p cbr -e 210 -c 0 -i 50 -a 0 -x {2.0 3.1 36 ------- null}
h -t 0.16048 -s 2 -d 3 -p cbr -e 210 -c 0 -i 50 -a 0 -x {2.0 3.1 -1 ------- null}
r -t 0.16124 -s 2 -d 3 -p cbr -e 210 -c 0 -i 44 -a 0 -x {2.0 3.1 30 ------- null}
+ -t 0.16216 -s 2 -d 3 -p cbr -e 210 -c 0 -i 51 -a 0 -x {2.0 3.1 37 ------- null}
- -t 0.16216 -s 2 -d 3 -p cbr -e 210 -c 0 -i 51 -a 0 -x {2.0 3.1 37 ------- null}
h -t 0.16216 -s 2 -d 3 -p cbr -e 210 -c 0 -i 51 -a 0 -x {2.0 3.1 -1 ------- null}
r -t 0.16292 -s 2 -d 3 -p cbr -e 210 -c 0 -i 45 -a 0 -x {2.0 3.1 31 ------- null}
+ -t 0.16384 -s 2 -d 3 -p cbr -e 210 -c 0 -i 52 -a 0 -x {2.0 3.1 38 ------- null}
- -t 0.16384 -s 2 -d 3 -p cbr -e 210 -c 0 -i 52 -a 0 -x {2.0 3.1 38 ------- null}
h -t 0.16384 -s 2 -d 3 -p cbr -e 210 -c 0 -i 52 -a 0 -x {2.0 3.1 -1 ------- null}
r -t 0.1646 -s 2 -d 3 -p cbr -e 210 -c 0 -i 46 -a 0 -x {2.0 3.1 32 ------- null}
+ -t 0.16552 -s 2 -d 3 -p cbr -e 210 -c 0 -i 53 -a 0 -x {2.0 3.1 39 ------- null}
- -t 0.16552 -s 2 -d 3 -p cbr -e 210 -c 0 -i 53 -a 0 -x {2.0 3.1 39 ------- null}
h -t 0.16552 -s 2 -d 3 -p cbr -e 210 -c 0 -i 53 -a 0 -x {2.0 3.1 -1 ------- null}
r -t 0.16628 -s 2 -d 3 -p cbr -e 210 -c 0 -i 47 -a 0 -x {2.0 3.1 33 ------- null}
+ -t 0.1672 -s 2 -d 3 -p cbr -e 210 -c 0 -i 54 -a 0 -x {2.0 3.1 40 ------- null}
- -t 0.1672 -s 2 -d 3 -p cbr -e 210 -c 0 -i 54 -a 0 -x {2.0 3.1 40 ------- null}
h -t 0.1672 -s 2 -d 3 -p cbr -e 210 -c 0 -i 54 -a 0 -x {2.0 3.1 -1 ------- null}
r -t 0.16796 -s 2 -d 3 -p cbr -e 210 -c 0 -i 48 -a 0 -x {2.0 3.1 34 ------- null}
+ -t 0.16888 -s 2 -d 3 -p cbr -e 210 -c 0 -i 55 -a 0 -x {2.0 3.1 41 ------- null}
- -t 0.16888 -s 2 -d 3 -p cbr -e 210 -c 0 -i 55 -a 0 -x {2.0 3.1 41 ------- null}
h -t 0.16888 -s 2 -d 3 -p cbr -e 210 -c 0 -i 55 -a 0 -x {2.0 3.1 -1 ------- null}
r -t 0.16964 -s 2 -d 3 -p cbr -e 210 -c 0 -i 49 -a 0 -x {2.0 3.1 35 ------- null}
+ -t 0.17056 -s 2 -d 3 -p cbr -e 210 -c 0 -i 56 -a 0 -x {2.0 3.1 42 ------- null}
- -t 0.17056 -s 2 -d 3 -p cbr -e 210 -c 0 -i 56 -a 0 -x {2.0 3.1 42 ------- null}
h -t 0.17056 -s 2 -d 3 -p cbr -e 210 -c 0 -i 56 -a 0 -x {2.0 3.1 -1 ------- null}
r -t 0.17132 -s 2 -d 3 -p cbr -e 210 -c 0 -i 50 -a 0 -x {2.0 3.1 36 ------- null}
+ -t 0.17224 -s 2 -d 3 -p cbr -e 210 -c 0 -i 57 -a 0 -x {2.0 3.1 43 ------- null}
- -t 0.17224 -s 2 -d 3 -p cbr -e 210 -c 0 -i 57 -a 0 -x {2.0 3.1 43 ------- null}
h -t 0.17224 -s 2 -d 3 -p cbr -e 210 -c 0 -i 57 -a 0 -x {2.0 3.1 -1 ------- null}
r -t 0.173 -s 2 -d 3 -p cbr -e 210 -c 0 -i 51 -a 0 -x {2.0 3.1 37 ------- null}
+ -t 0.17392 -s 2 -d 3 -p cbr -e 210 -c 0 -i 58 -a 0 -x {2.0 3.1 44 ------- null}
- -t 0.17392 -s 2 -d 3 -p cbr -e 210 -c 0 -i 58 -a 0 -x {2.0 3.1 44 ------- null}
h -t 0.17392 -s 2 -d 3 -p cbr -e 210 -c 0 -i 58 -a 0 -x {2.0 3.1 -1 ------- null}
r -t 0.17468 -s 2 -d 3 -p cbr -e 210 -c 0 -i 52 -a 0 -x {2.0 3.1 38 ------- null}
+ -t 0.1756 -s 2 -d 3 -p cbr -e 210 -c 0 -i 59 -a 0 -x {2.0 3.1 45 ------- null}
- -t 0.1756 -s 2 -d 3 -p cbr -e 210 -c 0 -i 59 -a 0 -x {2.0 3.1 45 ------- null}
h -t 0.1756 -s 2 -d 3 -p cbr -e 210 -c 0 -i 59 -a 0 -x {2.0 3.1 -1 ------- null}
r -t 0.17636 -s 2 -d 3 -p cbr -e 210 -c 0 -i 53 -a 0 -x {2.0 3.1 39 ------- null}
+ -t 0.17728 -s 2 -d 3 -p cbr -e 210 -c 0 -i 60 -a 0 -x {2.0 3.1 46 ------- null}
- -t 0.17728 -s 2 -d 3 -p cbr -e 210 -c 0 -i 60 -a 0 -x {2.0 3.1 46 ------- null}
h -t 0.17728 -s 2 -d 3 -p cbr -e 210 -c 0 -i 60 -a 0 -x {2.0 3.1 -1 ------- null}
r -t 0.17804 -s 2 -d 3 -p cbr -e 210 -c 0 -i 54 -a 0 -x {2.0 3.1 40 ------- null}
+ -t 0.17896 -s 2 -d 3 -p cbr -e 210 -c 0 -i 61 -a 0 -x {2.0 3.1 47 ------- null}
- -t 0.17896 -s 2 -d 3 -p cbr -e 210 -c 0 -i 61 -a 0 -x {2.0 3.1 47 ------- null}
h -t 0.17896 -s 2 -d 3 -p cbr -e 210 -c 0 -i 61 -a 0 -x {2.0 3.1 -1 ------- null}
r -t 0.17972 -s 2 -d 3 -p cbr -e 210 -c 0 -i 55 -a 0 -x {2.0 3.1 41 ------- null}
+ -t 0.18064 -s 2 -d 3 -p cbr -e 210 -c 0 -i 62 -a 0 -x {2.0 3.1 48 ------- null}
- -t 0.18064 -s 2 -d 3 -p cbr -e 210 -c 0 -i 62 -a 0 -x {2.0 3.1 48 ------- null}
h -t 0.18064 -s 2 -d 3 -p cbr -e 210 -c 0 -i 62 -a 0 -x {2.0 3.1 -1 ------- null}
r -t 0.1814 -s 2 -d 3 -p cbr -e 210 -c 0 -i 56 -a 0 -x {2.0 3.1 42 ------- null}
+ -t 0.18232 -s 2 -d 3 -p cbr -e 210 -c 0 -i 63 -a 0 -x {2.0 3.1 49 ------- null}
- -t 0.18232 -s 2 -d 3 -p cbr -e 210 -c 0 -i 63 -a 0 -x {2.0 3.1 49 ------- null}
h -t 0.18232 -s 2 -d 3 -p cbr -e 210 -c 0 -i 63 -a 0 -x {2.0 3.1 -1 ------- null}
r -t 0.18308 -s 2 -d 3 -p cbr -e 210 -c 0 -i 57 -a 0 -x {2.0 3.1 43 ------- null}
+ -t 0.184 -s 2 -d 3 -p cbr -e 210 -c 0 -i 64 -a 0 -x {2.0 3.1 50 ------- null}
- -t 0.184 -s 2 -d 3 -p cbr -e 210 -c 0 -i 64 -a 0 -x {2.0 3.1 50 ------- null}
h -t 0.184 -s 2 -d 3 -p cbr -e 210 -c 0 -i 64 -a 0 -x {2.0 3.1 -1 ------- null}
r -t 0.18476 -s 2 -d 3 -p cbr -e 210 -c 0 -i 58 -a 0 -x {2.0 3.1 44 ------- null}
+ -t 0.18568 -s 2 -d 3 -p cbr -e 210 -c 0 -i 65 -a 0 -x {2.0 3.1 51 ------- null}
- -t 0.18568 -s 2 -d 3 -p cbr -e 210 -c 0 -i 65 -a 0 -x {2.0 3.1 51 ------- null}
h -t 0.18568 -s 2 -d 3 -p cbr -e 210 -c 0 -i 65 -a 0 -x {2.0 3.1 -1 ------- null}
r -t 0.18644 -s 2 -d 3 -p cbr -e 210 -c 0 -i 59 -a 0 -x {2.0 3.1 45 ------- null}
+ -t 0.18736 -s 2 -d 3 -p cbr -e 210 -c 0 -i 66 -a 0 -x {2.0 3.1 52 ------- null}
- -t 0.18736 -s 2 -d 3 -p cbr -e 210 -c 0 -i 66 -a 0 -x {2.0 3.1 52 ------- null}
h -t 0.18736 -s 2 -d 3 -p cbr -e 210 -c 0 -i 66 -a 0 -x {2.0 3.1 -1 ------- null}
r -t 0.18812 -s 2 -d 3 -p cbr -e 210 -c 0 -i 60 -a 0 -x {2.0 3.1 46 ------- null}
+ -t 0.18904 -s 2 -d 3 -p cbr -e 210 -c 0 -i 67 -a 0 -x {2.0 3.1 53 ------- null}
- -t 0.18904 -s 2 -d 3 -p cbr -e 210 -c 0 -i 67 -a 0 -x {2.0 3.1 53 ------- null}
h -t 0.18904 -s 2 -d 3 -p cbr -e 210 -c 0 -i 67 -a 0 -x {2.0 3.1 -1 ------- null}
r -t 0.1898 -s 2 -d 3 -p cbr -e 210 -c 0 -i 61 -a 0 -x {2.0 3.1 47 ------- null}
+ -t 0.19072 -s 2 -d 3 -p cbr -e 210 -c 0 -i 68 -a 0 -x {2.0 3.1 54 ------- null}
- -t 0.19072 -s 2 -d 3 -p cbr -e 210 -c 0 -i 68 -a 0 -x {2.0 3.1 54 ------- null}
h -t 0.19072 -s 2 -d 3 -p cbr -e 210 -c 0 -i 68 -a 0 -x {2.0 3.1 -1 ------- null}
r -t 0.19148 -s 2 -d 3 -p cbr -e 210 -c 0 -i 62 -a 0 -x {2.0 3.1 48 ------- null}
+ -t 0.192399999999999 -s 2 -d 3 -p cbr -e 210 -c 0 -i 69 -a 0 -x {2.0 3.1 55 ------- null}
- -t 0.192399999999999 -s 2 -d 3 -p cbr -e 210 -c 0 -i 69 -a 0 -x {2.0 3.1 55 ------- null}
h -t 0.192399999999999 -s 2 -d 3 -p cbr -e 210 -c 0 -i 69 -a 0 -x {2.0 3.1 -1 ------- null}
r -t 0.19316 -s 2 -d 3 -p cbr -e 210 -c 0 -i 63 -a 0 -x {2.0 3.1 49 ------- null}
+ -t 0.194079999999999 -s 2 -d 3 -p cbr -e 210 -c 0 -i 70 -a 0 -x {2.0 3.1 56 ------- null}
- -t 0.194079999999999 -s 2 -d 3 -p cbr -e 210 -c 0 -i 70 -a 0 -x {2.0 3.1 56 ------- null}
h -t 0.194079999999999 -s 2 -d 3 -p cbr -e 210 -c 0 -i 70 -a 0 -x {2.0 3.1 -1 ------- null}
r -t 0.19484 -s 2 -d 3 -p cbr -e 210 -c 0 -i 64 -a 0 -x {2.0 3.1 50 ------- null}
+ -t 0.195759999999999 -s 2 -d 3 -p cbr -e 210 -c 0 -i 71 -a 0 -x {2.0 3.1 57 ------- null}
- -t 0.195759999999999 -s 2 -d 3 -p cbr -e 210 -c 0 -i 71 -a 0 -x {2.0 3.1 57 ------- null}
h -t 0.195759999999999 -s 2 -d 3 -p cbr -e 210 -c 0 -i 71 -a 0 -x {2.0 3.1 -1 ------- null}
r -t 0.19652 -s 2 -d 3 -p cbr -e 210 -c 0 -i 65 -a 0 -x {2.0 3.1 51 ------- null}
+ -t 0.197439999999999 -s 2 -d 3 -p cbr -e 210 -c 0 -i 72 -a 0 -x {2.0 3.1 58 ------- null}
- -t 0.197439999999999 -s 2 -d 3 -p cbr -e 210 -c 0 -i 72 -a 0 -x {2.0 3.1 58 ------- null}
h -t 0.197439999999999 -s 2 -d 3 -p cbr -e 210 -c 0 -i 72 -a 0 -x {2.0 3.1 -1 ------- null}
r -t 0.1982 -s 2 -d 3 -p cbr -e 210 -c 0 -i 66 -a 0 -x {2.0 3.1 52 ------- null}
+ -t 0.199119999999999 -s 2 -d 3 -p cbr -e 210 -c 0 -i 73 -a 0 -x {2.0 3.1 59 ------- null}
- -t 0.199119999999999 -s 2 -d 3 -p cbr -e 210 -c 0 -i 73 -a 0 -x {2.0 3.1 59 ------- null}
h -t 0.199119999999999 -s 2 -d 3 -p cbr -e 210 -c 0 -i 73 -a 0 -x {2.0 3.1 -1 ------- null}
r -t 0.19988 -s 2 -d 3 -p cbr -e 210 -c 0 -i 67 -a 0 -x {2.0 3.1 53 ------- null}
+ -t 0.200799999999999 -s 2 -d 3 -p cbr -e 210 -c 0 -i 74 -a 0 -x {2.0 3.1 60 ------- null}
- -t 0.200799999999999 -s 2 -d 3 -p cbr -e 210 -c 0 -i 74 -a 0 -x {2.0 3.1 60 ------- null}
h -t 0.200799999999999 -s 2 -d 3 -p cbr -e 210 -c 0 -i 74 -a 0 -x {2.0 3.1 -1 ------- null}
r -t 0.201559999999999 -s 2 -d 3 -p cbr -e 210 -c 0 -i 68 -a 0 -x {2.0 3.1 54 ------- null}
+ -t 0.202479999999999 -s 2 -d 3 -p cbr -e 210 -c 0 -i 75 -a 0 -x {2.0 3.1 61 ------- null}
- -t 0.202479999999999 -s 2 -d 3 -p cbr -e 210 -c 0 -i 75 -a 0 -x {2.0 3.1 61 ------- null}
h -t 0.202479999999999 -s 2 -d 3 -p cbr -e 210 -c 0 -i 75 -a 0 -x {2.0 3.1 -1 ------- null}
r -t 0.203239999999999 -s 2 -d 3 -p cbr -e 210 -c 0 -i 69 -a 0 -x {2.0 3.1 55 ------- null}
+ -t 0.204159999999999 -s 2 -d 3 -p cbr -e 210 -c 0 -i 76 -a 0 -x {2.0 3.1 62 ------- null}
- -t 0.204159999999999 -s 2 -d 3 -p cbr -e 210 -c 0 -i 76 -a 0 -x {2.0 3.1 62 ------- null}
h -t 0.204159999999999 -s 2 -d 3 -p cbr -e 210 -c 0 -i 76 -a 0 -x {2.0 3.1 -1 ------- null}
r -t 0.204919999999999 -s 2 -d 3 -p cbr -e 210 -c 0 -i 70 -a 0 -x {2.0 3.1 56 ------- null}
+ -t 0.205839999999999 -s 2 -d 3 -p cbr -e 210 -c 0 -i 77 -a 0 -x {2.0 3.1 63 ------- null}
- -t 0.205839999999999 -s 2 -d 3 -p cbr -e 210 -c 0 -i 77 -a 0 -x {2.0 3.1 63 ------- null}
h -t 0.205839999999999 -s 2 -d 3 -p cbr -e 210 -c 0 -i 77 -a 0 -x {2.0 3.1 -1 ------- null}
r -t 0.206599999999999 -s 2 -d 3 -p cbr -e 210 -c 0 -i 71 -a 0 -x {2.0 3.1 57 ------- null}
+ -t 0.207519999999999 -s 2 -d 3 -p cbr -e 210 -c 0 -i 78 -a 0 -x {2.0 3.1 64 ------- null}
- -t 0.207519999999999 -s 2 -d 3 -p cbr -e 210 -c 0 -i 78 -a 0 -x {2.0 3.1 64 ------- null}
h -t 0.207519999999999 -s 2 -d 3 -p cbr -e 210 -c 0 -i 78 -a 0 -x {2.0 3.1 -1 ------- null}
r -t 0.208279999999999 -s 2 -d 3 -p cbr -e 210 -c 0 -i 72 -a 0 -x {2.0 3.1 58 ------- null}
+ -t 0.209199999999999 -s 2 -d 3 -p cbr -e 210 -c 0 -i 79 -a 0 -x {2.0 3.1 65 ------- null}
- -t 0.209199999999999 -s 2 -d 3 -p cbr -e 210 -c 0 -i 79 -a 0 -x {2.0 3.1 65 ------- null}
h -t 0.209199999999999 -s 2 -d 3 -p cbr -e 210 -c 0 -i 79 -a 0 -x {2.0 3.1 -1 ------- null}
r -t 0.209959999999999 -s 2 -d 3 -p cbr -e 210 -c 0 -i 73 -a 0 -x {2.0 3.1 59 ------- null}
+ -t 0.210879999999999 -s 2 -d 3 -p cbr -e 210 -c 0 -i 80 -a 0 -x {2.0 3.1 66 ------- null}
- -t 0.210879999999999 -s 2 -d 3 -p cbr -e 210 -c 0 -i 80 -a 0 -x {2.0 3.1 66 ------- null}
h -t 0.210879999999999 -s 2 -d 3 -p cbr -e 210 -c 0 -i 80 -a 0 -x {2.0 3.1 -1 ------- null}
r -t 0.211639999999999 -s 2 -d 3 -p cbr -e 210 -c 0 -i 74 -a 0 -x {2.0 3.1 60 ------- null}
+ -t 0.212559999999999 -s 2 -d 3 -p cbr -e 210 -c 0 -i 81 -a 0 -x {2.0 3.1 67 ------- null}
- -t 0.212559999999999 -s 2 -d 3 -p cbr -e 210 -c 0 -i 81 -a 0 -x {2.0 3.1 67 ------- null}
h -t 0.212559999999999 -s 2 -d 3 -p cbr -e 210 -c 0 -i 81 -a 0 -x {2.0 3.1 -1 ------- null}
r -t 0.213319999999999 -s 2 -d 3 -p cbr -e 210 -c 0 -i 75 -a 0 -x {2.0 3.1 61 ------- null}
+ -t 0.214239999999999 -s 2 -d 3 -p cbr -e 210 -c 0 -i 82 -a 0 -x {2.0 3.1 68 ------- null}
- -t 0.214239999999999 -s 2 -d 3 -p cbr -e 210 -c 0 -i 82 -a 0 -x {2.0 3.1 68 ------- null}
h -t 0.214239999999999 -s 2 -d 3 -p cbr -e 210 -c 0 -i 82 -a 0 -x {2.0 3.1 -1 ------- null}
r -t 0.214999999999999 -s 2 -d 3 -p cbr -e 210 -c 0 -i 76 -a 0 -x {2.0 3.1 62 ------- null}
+ -t 0.215919999999999 -s 2 -d 3 -p cbr -e 210 -c 0 -i 83 -a 0 -x {2.0 3.1 69 ------- null}
- -t 0.215919999999999 -s 2 -d 3 -p cbr -e 210 -c 0 -i 83 -a 0 -x {2.0 3.1 69 ------- null}
h -t 0.215919999999999 -s 2 -d 3 -p cbr -e 210 -c 0 -i 83 -a 0 -x {2.0 3.1 -1 ------- null}
r -t 0.216679999999999 -s 2 -d 3 -p cbr -e 210 -c 0 -i 77 -a 0 -x {2.0 3.1 63 ------- null}
+ -t 0.217599999999999 -s 2 -d 3 -p cbr -e 210 -c 0 -i 84 -a 0 -x {2.0 3.1 70 ------- null}
- -t 0.217599999999999 -s 2 -d 3 -p cbr -e 210 -c 0 -i 84 -a 0 -x {2.0 3.1 70 ------- null}
h -t 0.217599999999999 -s 2 -d 3 -p cbr -e 210 -c 0 -i 84 -a 0 -x {2.0 3.1 -1 ------- null}
r -t 0.218359999999999 -s 2 -d 3 -p cbr -e 210 -c 0 -i 78 -a 0 -x {2.0 3.1 64 ------- null}
+ -t 0.219279999999999 -s 2 -d 3 -p cbr -e 210 -c 0 -i 85 -a 0 -x {2.0 3.1 71 ------- null}
- -t 0.219279999999999 -s 2 -d 3 -p cbr -e 210 -c 0 -i 85 -a 0 -x {2.0 3.1 71 ------- null}
h -t 0.219279999999999 -s 2 -d 3 -p cbr -e 210 -c 0 -i 85 -a 0 -x {2.0 3.1 -1 ------- null}
r -t 0.220039999999999 -s 2 -d 3 -p cbr -e 210 -c 0 -i 79 -a 0 -x {2.0 3.1 65 ------- null}
+ -t 0.220959999999999 -s 2 -d 3 -p cbr -e 210 -c 0 -i 86 -a 0 -x {2.0 3.1 72 ------- null}
- -t 0.220959999999999 -s 2 -d 3 -p cbr -e 210 -c 0 -i 86 -a 0 -x {2.0 3.1 72 ------- null}
h -t 0.220959999999999 -s 2 -d 3 -p cbr -e 210 -c 0 -i 86 -a 0 -x {2.0 3.1 -1 ------- null}